LAMMPS (7 Feb 2024 - Update 1)
OMP_NUM_THREADS environment is not set. Defaulting to 1 thread. (src/comm.cpp:98)
  using 1 OpenMP thread(s) per MPI task
units			lj
boundary		p p p
atom_style		bond
special_bonds   	fene
bond_style      	fene
pair_style      	lj/cut 2.5

read_data      	100mers.data
Reading data file ...
  orthogonal box = (-6.6412405 -6.6412405 -6.6412405) to (6.6412405 6.6412405 6.6412405)
  1 by 1 by 1 MPI processor grid
  reading atoms ...
  2000 atoms
  reading velocities ...
  2000 velocities
  scanning bonds ...
  2 = max bonds/atom
  reading bonds ...
  1980 bonds
Finding 1-2 1-3 1-4 neighbors ...
  special bond factors lj:    0        1        1       
  special bond factors coul:  0        1        1       
     2 = max # of 1-2 neighbors
     2 = max # of special neighbors
  special bonds CPU = 0.000 seconds
  read_data CPU = 0.017 seconds

mass 			1 1

pair_coeff 		1 1 1.0 1.0 2.5
bond_coeff     	1 30 1.5 1.0 1.0


neighbor        	0.2 bin
#comm_modify            mode single cutoff 2.0
neigh_modify    	delay 0 every 1 check yes


compute		1 all msd
compute		2 all rdf 100 1 1 cutoff 2.5
compute 		3 all gyration
compute 		4 all vacf


timestep		0.001
thermo 		100
thermo_style 		custom step etotal enthalpy vol temp press density c_3[4]
dump                   MyDump all custom 1000 dump.atom id type x y z vx vy vz


fix 			1 all ave/time 10 5 50 c_1[4] file msd.txt
fix 			2 all ave/time 1 1 2 c_4[4] file vacf.txt
fix 			3 all ave/time 10 50 1000 c_2[*] file rdf.txt mode vector

fix 			nvt all nvt temp 1.0 1.0 1
run             	1000000
Generated 0 of 0 mixed pair_coeff terms from geometric mixing rule
Neighbor list info ...
  update: every = 1 steps, delay = 0 steps, check = yes
  max neighbors/atom: 2000, page size: 100000
  master list distance cutoff = 2.7
  ghost atom cutoff = 2.7
  binsize = 1.35, bins = 10 10 10
  2 neighbor lists, perpetual/occasional/extra = 1 1 0
  (1) pair lj/cut, perpetual
      attributes: half, newton on
      pair build: half/bin/newton
      stencil: half/bin/3d
      bin: standard
  (2) compute rdf, occasional, copy from (1)
      attributes: half, newton on
      pair build: copy
      stencil: none
      bin: none
Per MPI rank memory allocation (min/avg/max) = 5.217 | 5.217 | 5.217 Mbytes
   Step         TotEng        Enthalpy        Volume          Temp          Press         Density         c_3[4]    
         0   17.402771      17.553438      2343.3524      1.0187216      0.12859102     0.85347811     7.5306723    
       100   17.401409      16.807232      2343.3524      1.0366377     -0.50711742     0.85347811     7.5232435    
       200   17.401842      16.72229       2343.3524      1.0269068     -0.57998244     0.85347811     7.5129625    
       300   17.39954       16.925162      2343.3524      1.0195682     -0.40487184     0.85347811     7.4820151    
       400   17.397478      16.978094      2343.3524      1.0528284     -0.35793471     0.85347811     7.4615407    
       500   17.393207      16.744145      2343.3524      1.0399863     -0.55395993     0.85347811     7.4262219    
       600   17.387085      17.01193       2343.3524      1.0079507     -0.32018634     0.85347811     7.389307     
       700   17.380936      16.795527      2343.3524      1.0345229     -0.49963384     0.85347811     7.3543806    
       800   17.373836      16.692163      2343.3524      1.0455068     -0.58179295     0.85347811     7.3544771    
       900   17.365631      16.629245      2343.3524      1.0306456     -0.62848915     0.85347811     7.360594     
      1000   17.358084      16.8488        2343.3524      0.99608035    -0.43466278     0.85347811     7.3641584    
      1100   17.349108      16.70183       2343.3524      1.001473      -0.5524376      0.85347811     7.354776     
      1200   17.34354       16.77766       2343.3524      0.99054486    -0.48296609     0.85347811     7.3761808    
      1300   17.338009      16.852932      2343.3524      1.0083137     -0.41400268     0.85347811     7.4237462    
      1400   17.33215       16.610471      2343.3524      1.0055546     -0.6159372      0.85347811     7.4478943    
      1500   17.327198      16.803529      2343.3524      1.0037744     -0.44694015     0.85347811     7.4406095    
      1600   17.322586      16.831393      2343.3524      0.99642474    -0.41922194     0.85347811     7.4155058    
      1700   17.319746      16.975939      2343.3524      1.0094719     -0.29343207     0.85347811     7.4250593    
      1800   17.317944      16.285947      2343.3524      1.0019775     -0.88078697     0.85347811     7.3996433    
      1900   17.315514      16.761936      2343.3524      0.99340838    -0.47246728     0.85347811     7.400231     
      2000   17.313824      16.619889      2343.3524      1.0153551     -0.59225799     0.85347811     7.3991468    
      2100   17.311685      16.671993      2343.3524      1.0156527     -0.54596314     0.85347811     7.38626      
      2200   17.31019       16.927019      2343.3524      0.98463797    -0.32702797     0.85347811     7.3784759    
      2300   17.309701      16.386787      2343.3524      0.98960123    -0.78768692     0.85347811     7.3530092    
      2400   17.309393      16.548329      2343.3524      1.0221247     -0.64955164     0.85347811     7.3283725    
      2500   17.307946      16.561891      2343.3524      1.0132851     -0.63674139     0.85347811     7.3010261    
      2600   17.306846      16.627426      2343.3524      0.98810368    -0.57987058     0.85347811     7.2714681    
      2700   17.306083      16.730692      2343.3524      0.9787425     -0.49108336     0.85347811     7.2501894    
      2800   17.305813      16.785616      2343.3524      0.99464941    -0.44397698     0.85347811     7.2415012    
      2900   17.306155      16.660187      2343.3524      0.99737292    -0.55131909     0.85347811     7.2249916    
      3000   17.305341      17.033946      2343.3524      0.98744018    -0.23162962     0.85347811     7.2182283    
      3100   17.304859      16.838583      2343.3524      0.98456255    -0.39795694     0.85347811     7.2262699    
      3200   17.305047      16.679484      2343.3524      0.98465477    -0.53390426     0.85347811     7.2362455    
      3300   17.306009      16.791787      2343.3524      0.98371188    -0.43887715     0.85347811     7.2435148    
      3400   17.308251      16.57922       2343.3524      0.98925504    -0.62221164     0.85347811     7.2214225    
      3500   17.308709      16.36884       2343.3524      0.97986988    -0.80215781     0.85347811     7.1573917    
      3600   17.310792      16.911969      2343.3524      0.99333148    -0.34038641     0.85347811     7.0995939    
      3700   17.311996      16.437408      2343.3524      1.0008356     -0.7464414      0.85347811     7.071917     
      3800   17.315084      16.329533      2343.3524      1.0063073     -0.84114539     0.85347811     7.0515109    
      3900   17.31739       16.796402      2343.3524      1.0249885     -0.44465177     0.85347811     7.0501665    
      4000   17.319845      16.518023      2343.3524      0.99317701    -0.68433759     0.85347811     7.0510999    
      4100   17.322445      16.646755      2343.3524      0.98508131    -0.57668645     0.85347811     7.0438798    
      4200   17.323923      16.634806      2343.3524      0.99393667    -0.58814622     0.85347811     7.0478232    
      4300   17.328075      16.942604      2343.3524      1.0116326     -0.32899119     0.85347811     7.0513125    
      4400   17.332315      16.702311      2343.3524      0.99092149    -0.53769474     0.85347811     7.0476891    
      4500   17.337497      16.31866       2343.3524      1.0109049     -0.86955517     0.85347811     7.0513479    
      4600   17.342304      17.028357      2343.3524      1.0200979     -0.26794675     0.85347811     7.0350696    
      4700   17.347045      16.949462      2343.3524      1.002987      -0.33932769     0.85347811     7.0081833    
      4800   17.351756      16.711007      2343.3524      1.0052444     -0.5468651      0.85347811     6.9913765    
      4900   17.356504      16.737461      2343.3524      1.0168556     -0.5283393      0.85347811     6.9947383    
      5000   17.361108      17.388853      2343.3524      1.0177942      0.023680183    0.85347811     7.0040875    
      5100   17.365713      16.34747       2343.3524      1.0156665     -0.86904848     0.85347811     6.9904849    
      5200   17.371563      17.101233      2343.3524      0.996069      -0.2307206      0.85347811     6.9754388    
      5300   17.377286      17.014534      2343.3524      1.0379718     -0.30960054     0.85347811     6.9489612    
      5400   17.381992      17.079952      2343.3524      1.0000833     -0.25778418     0.85347811     6.9433375    
      5500   17.386583      16.957255      2343.3524      1.0367508     -0.36642218     0.85347811     6.9486059    
      5600   17.391859      16.89399       2343.3524      1.0253226     -0.42492008     0.85347811     6.9564195    
      5700   17.395247      16.659465      2343.3524      1.0076193     -0.62797436     0.85347811     6.9483625    
      5800   17.39651       17.397898      2343.3524      1.0509793      0.0011845619   0.85347811     6.9468144    
      5900   17.398575      16.901457      2343.3524      1.0129835     -0.42427955     0.85347811     6.9644773    
      6000   17.39986       16.629733      2343.3524      1.0583872     -0.6572861      0.85347811     7.0139797    
      6100   17.400098      16.668958      2343.3524      1.0217674     -0.62401242     0.85347811     7.0627127    
      6200   17.399338      16.979366      2343.3524      1.0432432     -0.35843669     0.85347811     7.1176719    
      6300   17.397563      16.472909      2343.3524      1.0442647     -0.78917174     0.85347811     7.1815746    
      6400   17.393469      17.300007      2343.3524      1.0251197     -0.079768182    0.85347811     7.2276403    
      6500   17.387653      16.45594       2343.3524      1.0387508     -0.79519606     0.85347811     7.2555677    
      6600   17.378943      16.980381      2343.3524      1.0304521     -0.34016365     0.85347811     7.2859843    
      6700   17.370307      16.776351      2343.3524      1.0286096     -0.50692799     0.85347811     7.3013959    
      6800   17.360219      16.664797      2343.3524      0.99386583    -0.59352761     0.85347811     7.3403765    
      6900   17.349048      16.873013      2343.3524      1.0064269     -0.40628495     0.85347811     7.3912325    
      7000   17.338605      17.044492      2343.3524      1.016858      -0.251019       0.85347811     7.3845498    
      7100   17.329207      16.572416      2343.3524      0.99733409    -0.64590468     0.85347811     7.3293577    
      7200   17.322459      16.688412      2343.3524      0.98042758    -0.54114531     0.85347811     7.2995313    
      7300   17.315315      16.367771      2343.3524      0.98822878    -0.80870838     0.85347811     7.2843048    
      7400   17.310001      16.887687      2343.3524      0.99518732    -0.36043612     0.85347811     7.2797675    
      7500   17.305904      16.172702      2343.3524      0.99645952    -0.96716236     0.85347811     7.2809764    
      7600   17.302764      16.730054      2343.3524      1.0050826     -0.48879515     0.85347811     7.2959007    
      7700   17.299919      16.231804      2343.3524      0.97645912    -0.91161262     0.85347811     7.3304525    
      7800   17.29833       16.678879      2343.3524      0.98993484    -0.52868788     0.85347811     7.3286097    
      7900   17.296707      16.577125      2343.3524      0.9848512     -0.61414768     0.85347811     7.3218349    
      8000   17.295978      16.583858      2343.3524      0.97977461    -0.60777933     0.85347811     7.3136428    
      8100   17.295609      16.281022      2343.3524      0.99095086    -0.86592829     0.85347811     7.2537742    
      8200   17.295336      16.647779      2343.3524      0.9789164     -0.55267546     0.85347811     7.2030959    
      8300   17.295089      16.548432      2343.3524      0.99327527    -0.63725543     0.85347811     7.2243701    
      8400   17.295953      16.385259      2343.3524      0.99319239    -0.77725699     0.85347811     7.2513483    
      8500   17.296892      16.895665      2343.3524      0.97529658    -0.342439       0.85347811     7.2618263    
      8600   17.297914      16.871196      2343.3524      0.96749345    -0.36419403     0.85347811     7.2715572    
      8700   17.299548      16.772449      2343.3524      0.9990208     -0.44986702     0.85347811     7.3013539    
      8800   17.301333      16.634756      2343.3524      0.99872758    -0.56890955     0.85347811     7.3421962    
      8900   17.304041      16.437041      2343.3524      0.98201874    -0.73996558     0.85347811     7.3698046    
      9000   17.305966      16.753689      2343.3524      1.0167466     -0.47135609     0.85347811     7.3648736    
      9100   17.308222      17.083818      2343.3524      0.9663544     -0.19152401     0.85347811     7.3435994    
      9200   17.310219      15.884425      2343.3524      1.0133233     -1.2168834      0.85347811     7.3272675    
      9300   17.31308       16.632774      2343.3524      0.99324649    -0.58062673     0.85347811     7.3135608    
      9400   17.3165        16.449274      2343.3524      1.0145998     -0.74015887     0.85347811     7.307329     
      9500   17.320161      16.554667      2343.3524      1.00514       -0.65333254     0.85347811     7.3339865    
      9600   17.322604      16.89226       2343.3524      0.99203658    -0.36728883     0.85347811     7.3937992    
      9700   17.325008      16.690804      2343.3524      1.0149402     -0.54127871     0.85347811     7.4427605    
      9800   17.328716      16.409973      2343.3524      1.0095104     -0.78412686     0.85347811     7.4652163    
      9900   17.330719      16.521748      2343.3524      1.0126434     -0.69043936     0.85347811     7.4590703    
     10000   17.332946      16.691197      2343.3524      1.017591      -0.54771914     0.85347811     7.4301416    
     10100   17.335256      16.383341      2343.3524      1.0102369     -0.81243869     0.85347811     7.397741     
     10200   17.338167      16.825258      2343.3524      0.99116373    -0.43775719     0.85347811     7.3593699    
     10300   17.340253      16.800698      2343.3524      1.020112      -0.46049834     0.85347811     7.320309     
     10400   17.342722      17.498369      2343.3524      1.0020326      0.1328412      0.85347811     7.3142912    
     10500   17.345439      16.010339      2343.3524      1.0079786     -1.1394784      0.85347811     7.281566     
     10600   17.348375      16.975366      2343.3524      1.0110284     -0.31835517     0.85347811     7.2335585    
     10700   17.351315      16.346468      2343.3524      1.0121555     -0.85761498     0.85347811     7.2184834    
     10800   17.354776      17.118414      2343.3524      1.0079892     -0.20173021     0.85347811     7.2389098    
     10900   17.358122      16.925196      2343.3524      1.0135708     -0.3694933      0.85347811     7.2749872    
     11000   17.361517      16.823252      2343.3524      1.0274979     -0.45939724     0.85347811     7.3082516    
     11100   17.364973      16.568295      2343.3524      1.0013188     -0.67994664     0.85347811     7.357201     
     11200   17.367065      16.959001      2343.3524      1.0174986     -0.34827403     0.85347811     7.4025203    
     11300   17.370931      16.996385      2343.3524      1.0117178     -0.31966709     0.85347811     7.4242936    
     11400   17.373783      16.851507      2343.3524      1.0331733     -0.44575095     0.85347811     7.4277387    
     11500   17.376467      17.204535      2343.3524      1.0242834     -0.14674043     0.85347811     7.3922114    
     11600   17.378199      16.51637       2343.3524      1.0040409     -0.73555242     0.85347811     7.3623237    
     11700   17.380602      16.822799      2343.3524      1.0418272     -0.4760726      0.85347811     7.3378173    
     11800   17.381186      16.691686      2343.3524      1.0241459     -0.58847369     0.85347811     7.3245427    
     11900   17.381449      16.808707      2343.3524      1.0448677     -0.48882266     0.85347811     7.3318185    
     12000   17.380795      16.790614      2343.3524      1.0358177     -0.50370676     0.85347811     7.3182645    
     12100   17.378795      16.549073      2343.3524      1.0281534     -0.7081498      0.85347811     7.2836744    
     12200   17.375927      16.64058       2343.3524      1.0259846     -0.62760186     0.85347811     7.2372939    
     12300   17.37062       16.777862      2343.3524      1.0524412     -0.5059066      0.85347811     7.216791     
     12400   17.364349      16.709692      2343.3524      1.0194287     -0.55873557     0.85347811     7.2258426    
     12500   17.357194      16.569609      2343.3524      1.0250273     -0.67218635     0.85347811     7.2421065    
     12600   17.34899       16.851127      2343.3524      1.0042421     -0.42491468     0.85347811     7.2588966    
     12700   17.340163      16.64291       2343.3524      1.0096706     -0.59508971     0.85347811     7.2719531    
     12800   17.331367      16.613512      2343.3524      1.0287066     -0.61267306     0.85347811     7.2679777    
     12900   17.323585      16.566101      2343.3524      0.9932312     -0.64649618     0.85347811     7.2719387    
     13000   17.316048      16.668161      2343.3524      0.97711089    -0.55295799     0.85347811     7.2646961    
     13100   17.308722      16.258408      2343.3524      1.0091118     -0.89641965     0.85347811     7.2496259    
     13200   17.303132      16.765852      2343.3524      0.98902769    -0.45855675     0.85347811     7.2375976    
     13300   17.298631      16.568678      2343.3524      0.97392385    -0.62299921     0.85347811     7.2504879    
     13400   17.294385      16.570275      2343.3524      0.99300513    -0.61801274     0.85347811     7.2522409    
     13500   17.292218      16.831865      2343.3524      0.98197804    -0.39290128     0.85347811     7.2305054    
     13600   17.2898        16.572653      2343.3524      0.99603537    -0.61206928     0.85347811     7.179043     
     13700   17.287458      16.44407       2343.3524      0.97506478    -0.71981298     0.85347811     7.1383609    
     13800   17.287184      16.77726       2343.3524      0.97384938    -0.43520859     0.85347811     7.1201997    
     13900   17.28683       16.850917      2343.3524      0.97481433    -0.37204227     0.85347811     7.1167543    
     14000   17.287484      16.724158      2343.3524      0.99289665    -0.48078687     0.85347811     7.1146723    
     14100   17.287612      16.664013      2343.3524      0.98936495    -0.5322277      0.85347811     7.0896937    
     14200   17.287171      16.37106       2343.3524      1.0060069     -0.78188071     0.85347811     7.0704693    
     14300   17.287335      16.869202      2343.3524      0.98345115    -0.35686728     0.85347811     7.0811299    
     14400   17.288252      16.541004      2343.3524      1.0054251     -0.63775911     0.85347811     7.089351     
     14500   17.288914      17.039163      2343.3524      0.96541049    -0.2131567      0.85347811     7.0987182    
     14600   17.289842      16.781062      2343.3524      0.97405649    -0.43423284     0.85347811     7.1045683    
     14700   17.292201      17.082176      2343.3524      0.99887946    -0.17925235     0.85347811     7.0943536    
     14800   17.29474       16.605607      2343.3524      0.99696663    -0.58815979     0.85347811     7.1018013    
     14900   17.297887      16.470211      2343.3524      1.0002553     -0.70640373     0.85347811     7.1322396    
     15000   17.300364      16.591066      2343.3524      0.98386894    -0.60537084     0.85347811     7.174098     
     15100   17.305742      16.846714      2343.3524      0.98611703    -0.39176967     0.85347811     7.2057479    
     15200   17.309115      16.676477      2343.3524      0.9982188     -0.53994256     0.85347811     7.2583829    
     15300   17.314316      16.732322      2343.3524      0.98435734    -0.49671907     0.85347811     7.3403639    
     15400   17.319865      16.570956      2343.3524      1.0048524     -0.63917732     0.85347811     7.3755545    
     15500   17.325308      17.026843      2343.3524      1.0180274     -0.25473312     0.85347811     7.3769112    
     15600   17.331584      17.01552       2343.3524      1.000531      -0.26975376     0.85347811     7.3701412    
     15700   17.336311      16.17895       2343.3524      1.0045118     -0.98778245     0.85347811     7.3904245    
     15800   17.341342      16.822625      2343.3524      1.017185      -0.4427141      0.85347811     7.403287     
     15900   17.346741      17.009679      2343.3524      1.0053725     -0.28767447     0.85347811     7.372539     
     16000   17.350934      16.824567      2343.3524      1.0356034     -0.44924313     0.85347811     7.3415927    
     16100   17.354286      16.900575      2343.3524      1.0080226     -0.38723197     0.85347811     7.302048     
     16200   17.357679      17.042417      2343.3524      1.011874      -0.2690694      0.85347811     7.2686962    
     16300   17.360612      16.981785      2343.3524      1.0169001     -0.3233207      0.85347811     7.2630791    
     16400   17.364198      16.853197      2343.3524      1.020303      -0.43612801     0.85347811     7.2668067    
     16500   17.365529      17.284218      2343.3524      1.0037896     -0.06939676     0.85347811     7.2623065    
     16600   17.366444      16.516981      2343.3524      1.0330086     -0.72499807     0.85347811     7.2598508    
     16700   17.367012      16.844055      2343.3524      1.0168123     -0.44633207     0.85347811     7.2509149    
     16800   17.36854       17.06292       2343.3524      1.007221      -0.26083999     0.85347811     7.2545348    
     16900   17.368697      16.772892      2343.3524      1.014358      -0.50850614     0.85347811     7.2489285    
     17000   17.368189      17.214988      2343.3524      1.0024458     -0.13075363     0.85347811     7.2330463    
     17100   17.367765      16.989181      2343.3524      1.01187       -0.32311263     0.85347811     7.2149965    
     17200   17.367804      16.905298      2343.3524      1.0155089     -0.3947391      0.85347811     7.1889825    
     17300   17.366566      17.008439      2343.3524      1.0215767     -0.30565378     0.85347811     7.1649104    
     17400   17.364601      16.90282       2343.3524      0.99495457    -0.39411988     0.85347811     7.1768414    
     17500   17.362136      16.642497      2343.3524      0.99794981    -0.61419564     0.85347811     7.19263      
     17600   17.357514      16.760326      2343.3524      1.0117524     -0.50968688     0.85347811     7.1638963    
     17700   17.351434      16.531664      2343.3524      1.0232262     -0.69965551     0.85347811     7.1215117    
     17800   17.344045      16.403152      2343.3524      1.0289109     -0.80303108     0.85347811     7.0755905    
     17900   17.335215      17.244147      2343.3524      0.99948234    -0.077724662    0.85347811     7.0366998    
     18000   17.325038      16.362641      2343.3524      1.0016387     -0.82138508     0.85347811     7.0286823    
     18100   17.314548      16.330292      2343.3524      0.99091717    -0.84004129     0.85347811     7.0071276    
     18200   17.304607      16.621531      2343.3524      1.0128868     -0.58299054     0.85347811     6.9802289    
     18300   17.296194      16.45993       2343.3524      1.0002107     -0.71373334     0.85347811     6.9621159    
     18400   17.287682      16.501756      2343.3524      0.98690548    -0.67077043     0.85347811     6.9515628    
     18500   17.281621      16.599276      2343.3524      0.98932623    -0.5823671      0.85347811     6.9359961    
     18600   17.275921      16.527495      2343.3524      0.97666385    -0.63876599     0.85347811     6.9470415    
     18700   17.271399      16.713452      2343.3524      0.98720269    -0.47619547     0.85347811     6.9379029    
     18800   17.267212      16.793557      2343.3524      0.98325009    -0.40425417     0.85347811     6.9120852    
     18900   17.264112      16.304954      2343.3524      1.0001137     -0.81862064     0.85347811     6.8842408    
     19000   17.26222       16.410005      2343.3524      0.98966057    -0.72734679     0.85347811     6.8440158    
     19100   17.260266      16.352773      2343.3524      0.98380003    -0.77452508     0.85347811     6.7935784    
     19200   17.259254      16.620586      2343.3524      0.96068827    -0.54508875     0.85347811     6.7716378    
     19300   17.25904       16.6359        2343.3524      0.98313363    -0.53183616     0.85347811     6.7753908    
     19400   17.258038      16.667794      2343.3524      0.98296827    -0.5037605      0.85347811     6.7898594    
     19500   17.259889      16.907726      2343.3524      0.97228313    -0.30056412     0.85347811     6.7943648    
     19600   17.26151       16.230511      2343.3524      0.9890392     -0.87993453     0.85347811     6.7973069    
     19700   17.262069      16.821778      2343.3524      0.98232668    -0.37577904     0.85347811     6.8249014    
     19800   17.264375      16.535543      2343.3524      0.98510233    -0.62204202     0.85347811     6.8465724    
     19900   17.266368      16.500044      2343.3524      0.9836141     -0.65404063     0.85347811     6.8541244    
     20000   17.27037       16.577867      2343.3524      0.96788081    -0.59103604     0.85347811     6.8423733    
     20100   17.274223      16.403534      2343.3524      1.0024424     -0.74311425     0.85347811     6.8639637    
     20200   17.278801      16.94154       2343.3524      0.9735249     -0.28784486     0.85347811     6.876061     
     20300   17.284261      16.640322      2343.3524      0.9690845     -0.54958788     0.85347811     6.8794165    
     20400   17.29018       16.14703       2343.3524      1.0090148     -0.97565377     0.85347811     6.8558464    
     20500   17.296225      16.753695      2343.3524      0.98860354    -0.46303733     0.85347811     6.8325687    
     20600   17.302925      16.618538      2343.3524      1.0016551     -0.58410917     0.85347811     6.7902689    
     20700   17.308646      16.728864      2343.3524      1.0007675     -0.49483063     0.85347811     6.7400882    
     20800   17.314602      16.254078      2343.3524      0.99412854    -0.90513377     0.85347811     6.7045476    
     20900   17.320707      16.477251      2343.3524      0.98649301    -0.71987119     0.85347811     6.7097199    
     21000   17.32635       16.800778      2343.3524      1.0120543     -0.44856436     0.85347811     6.7309897    
     21100   17.330653      16.649708      2343.3524      0.99940063    -0.58117224     0.85347811     6.7157032    
     21200   17.33397       16.869391      2343.3524      0.99780034    -0.39650792     0.85347811     6.682553     
     21300   17.338339      16.874922      2343.3524      1.0023832     -0.39551671     0.85347811     6.6528323    
     21400   17.342196      16.762693      2343.3524      0.99216929    -0.49459295     0.85347811     6.6649112    
     21500   17.345096      17.050966      2343.3524      1.0148864     -0.25103325     0.85347811     6.679163     
     21600   17.347736      16.686222      2343.3524      1.0175087     -0.56458762     0.85347811     6.6826285    
     21700   17.350044      16.70046       2343.3524      1.0075053     -0.55440609     0.85347811     6.6732326    
     21800   17.351422      17.018632      2343.3524      1.0326229     -0.28402909     0.85347811     6.6605382    
     21900   17.352697      16.912714      2343.3524      1.0049453     -0.37551625     0.85347811     6.635078     
     22000   17.355085      16.457646      2343.3524      1.0194903     -0.76594475     0.85347811     6.6197917    
     22100   17.355302      16.911391      2343.3524      1.0340295     -0.37886761     0.85347811     6.5988278    
     22200   17.354888      17.086472      2343.3524      1.0088843     -0.22908718     0.85347811     6.571443     
     22300   17.355301      16.860222      2343.3524      1.0092882     -0.42253958     0.85347811     6.5314894    
     22400   17.354338      17.009287      2343.3524      1.0032202     -0.29449401     0.85347811     6.4979088    
     22500   17.352501      16.808706      2343.3524      1.0045429     -0.46411763     0.85347811     6.4697243    
     22600   17.350624      16.909747      2343.3524      1.0408443     -0.37627892     0.85347811     6.4558964    
     22700   17.347387      17.083367      2343.3524      1.0102489     -0.22533522     0.85347811     6.4435548    
     22800   17.345272      16.84951       2343.3524      0.99898768    -0.42312176     0.85347811     6.4205564    
     22900   17.340952      17.036087      2343.3524      1.0181644     -0.26019561     0.85347811     6.3870101    
     23000   17.338064      16.481169      2343.3524      1.0080146     -0.73134139     0.85347811     6.3522425    
     23100   17.334552      16.929095      2343.3524      0.98246597    -0.34604925     0.85347811     6.3377229    
     23200   17.33126       16.552345      2343.3524      0.98732906    -0.66478668     0.85347811     6.3266843    
     23300   17.329417      16.864816      2343.3524      1.0026124     -0.39652675     0.85347811     6.3111213    
     23400   17.325762      16.801141      2343.3524      1.0133794     -0.447752       0.85347811     6.2894553    
     23500   17.323041      16.588304      2343.3524      0.98112399    -0.62708152     0.85347811     6.2836955    
     23600   17.319567      16.971129      2343.3524      0.99506255    -0.29738407     0.85347811     6.259414     
     23700   17.316128      16.603492      2343.3524      1.0016821     -0.6082196      0.85347811     6.2097125    
     23800   17.311271      16.828559      2343.3524      0.96390599    -0.41198386     0.85347811     6.1618884    
     23900   17.30753       16.633048      2343.3524      1.0036139     -0.5756553      0.85347811     6.1088921    
     24000   17.303539      16.734254      2343.3524      0.9959984     -0.48587248     0.85347811     6.0581849    
     24100   17.299119      16.358557      2343.3524      1.0082603     -0.80274926     0.85347811     6.0218006    
     24200   17.294752      16.732913      2343.3524      0.99053112    -0.47951697     0.85347811     5.9927799    
     24300   17.289283      16.675816      2343.3524      0.98217514    -0.52358083     0.85347811     5.9866455    
     24400   17.28365       16.567976      2343.3524      0.99994053    -0.6108121      0.85347811     5.9656469    
     24500   17.276161      17.126106      2343.3524      0.96290088    -0.12806852     0.85347811     5.9478557    
     24600   17.267631      16.461779      2343.3524      0.99569753    -0.68777697     0.85347811     5.9401497    
     24700   17.25791       16.893052      2343.3524      0.97785287    -0.31139816     0.85347811     5.9075315    
     24800   17.249281      16.591772      2343.3524      0.97177511    -0.56116952     0.85347811     5.8924264    
     24900   17.240196      16.342009      2343.3524      0.94977535    -0.76658292     0.85347811     5.8879006    
     25000   17.232586      16.95867       2343.3524      0.96138486    -0.23378115     0.85347811     5.8893812    
     25100   17.225869      16.376365      2343.3524      0.9801067     -0.72503327     0.85347811     5.8914717    
     25200   17.221261      16.461457      2343.3524      0.94654292    -0.64847627     0.85347811     5.85606      
     25300   17.217071      16.617136      2343.3524      0.93443844    -0.51203124     0.85347811     5.8144276    
     25400   17.214237      16.583852      2343.3524      0.95667064    -0.53801956     0.85347811     5.8039113    
     25500   17.212747      16.885794      2343.3524      0.95693495    -0.27904779     0.85347811     5.8177096    
     25600   17.212078      16.523935      2343.3524      0.95868373    -0.58731541     0.85347811     5.8187081    
     25700   17.213416      16.236655      2343.3524      0.98135771    -0.83364404     0.85347811     5.8287251    
     25800   17.215321      16.255621      2343.3524      0.95459119    -0.81908369     0.85347811     5.8639901    
     25900   17.217795      16.379723      2343.3524      0.97256534    -0.71527638     0.85347811     5.9051182    
     26000   17.221902      16.268416      2343.3524      0.947828      -0.81377943     0.85347811     5.9047232    
     26100   17.226858      16.832873      2343.3524      0.98145659    -0.33625782     0.85347811     5.907795     
     26200   17.233326      16.593906      2343.3524      0.94674848    -0.54573109     0.85347811     5.9206041    
     26300   17.239777      16.637403      2343.3524      0.94621757    -0.51411312     0.85347811     5.9063133    
     26400   17.246478      16.120351      2343.3524      0.95773484    -0.96112542     0.85347811     5.8750738    
     26500   17.253748      16.878261      2343.3524      0.98421982    -0.32046928     0.85347811     5.8631326    
     26600   17.259998      16.633777      2343.3524      0.97337661    -0.53446545     0.85347811     5.8895221    
     26700   17.266373      16.281408      2343.3524      0.97003872    -0.84064611     0.85347811     5.9241646    
     26800   17.27186       16.531528      2343.3524      0.98911786    -0.63185721     0.85347811     5.9289974    
     26900   17.276904      16.102998      2343.3524      0.98448902    -1.0019037      0.85347811     5.9408429    
     27000   17.280682      16.739755      2343.3524      0.9784105     -0.46166964     0.85347811     5.957132     
     27100   17.28364       16.402979      2343.3524      0.98219111    -0.75162455     0.85347811     5.9835364    
     27200   17.286151      16.728073      2343.3524      0.99318298    -0.47630749     0.85347811     6.0045796    
     27300   17.288311      16.610134      2343.3524      0.98154278    -0.57880863     0.85347811     6.0043144    
     27400   17.290741      16.783234      2343.3524      0.9972073     -0.43314655     0.85347811     6.0227881    
     27500   17.293575      16.689636      2343.3524      0.97676437    -0.51544885     0.85347811     6.0473119    
     27600   17.296843      16.390636      2343.3524      0.99344093    -0.77342812     0.85347811     6.0501265    
     27700   17.299486      16.816279      2343.3524      0.99242654    -0.4124064      0.85347811     6.0281655    
     27800   17.301482      16.740566      2343.3524      0.96864273    -0.47872962     0.85347811     6.0300846    
     27900   17.304992      16.702448      2343.3524      0.99952436    -0.5142578      0.85347811     6.0388018    
     28000   17.307881      16.565771      2343.3524      0.98609132    -0.63337438     0.85347811     6.0417112    
     28100   17.311068      16.607869      2343.3524      1.0157974     -0.60016521     0.85347811     6.0469507    
     28200   17.314465      16.898174      2343.3524      0.98468244    -0.35529551     0.85347811     6.0522411    
     28300   17.318065      16.764024      2343.3524      0.98702039    -0.47286142     0.85347811     6.0708053    
     28400   17.321369      16.707685      2343.3524      0.99965751    -0.52376585     0.85347811     6.0798802    
     28500   17.325221      16.996005      2343.3524      1.0113691     -0.28097799     0.85347811     6.0729945    
     28600   17.328722      16.496297      2343.3524      1.0183762     -0.71045651     0.85347811     6.078035     
     28700   17.33173       17.062688      2343.3524      1.0066241     -0.22962114     0.85347811     6.0711838    
     28800   17.335091      16.294342      2343.3524      1.0097346     -0.88825657     0.85347811     6.0509467    
     28900   17.337907      16.755929      2343.3524      1.020632      -0.49670549     0.85347811     6.0023703    
     29000   17.33934       16.80077       2343.3524      1.03939       -0.45965762     0.85347811     5.9506266    
     29100   17.340436      17.303379      2343.3524      1.0155347     -0.031627924    0.85347811     5.9186105    
     29200   17.340185      16.914826      2343.3524      1.0295978     -0.36303425     0.85347811     5.9302675    
     29300   17.341948      17.074073      2343.3524      0.99610099    -0.22862552     0.85347811     5.9330744    
     29400   17.34337       16.755014      2343.3524      1.0049789     -0.50214845     0.85347811     5.9225169    
     29500   17.343943      17.219561      2343.3524      1.020831      -0.10615737     0.85347811     5.9208631    
     29600   17.342638      16.835338      2343.3524      1.0294988     -0.43296869     0.85347811     5.9347063    
     29700   17.341958      17.264109      2343.3524      1.0192379     -0.066441863    0.85347811     5.9423281    
     29800   17.340395      16.558908      2343.3524      1.0141314     -0.66698182     0.85347811     5.9435067    
     29900   17.337922      16.97142       2343.3524      1.0027437     -0.31280172     0.85347811     5.945659     
     30000   17.3356        17.149695      2343.3524      1.0159182     -0.15866562     0.85347811     5.9515047    
     30100   17.333614      16.980637      2343.3524      1.0040544     -0.30125781     0.85347811     5.9650578    
     30200   17.330373      16.920745      2343.3524      1.0210629     -0.3496089      0.85347811     5.9578192    
     30300   17.326268      16.733827      2343.3524      0.99773851    -0.50563526     0.85347811     5.9653817    
     30400   17.322345      16.9128        2343.3524      0.99375083    -0.34953749     0.85347811     5.9854652    
     30500   17.316508      16.485585      2343.3524      1.0249258     -0.70917466     0.85347811     6.0184863    
     30600   17.310565      16.77308       2343.3524      0.98989986    -0.45873161     0.85347811     6.0659619    
     30700   17.305206      16.682602      2343.3524      0.98291832    -0.53137915     0.85347811     6.0997358    
     30800   17.299457      16.831759      2343.3524      0.98457895    -0.39917061     0.85347811     6.1197788    
     30900   17.29265       16.732684      2343.3524      0.98674605    -0.47791907     0.85347811     6.1121746    
     31000   17.287238      16.875265      2343.3524      0.98254032    -0.35160978     0.85347811     6.0550757    
     31100   17.281272      16.883106      2343.3524      0.98188506    -0.33982616     0.85347811     5.9981395    
     31200   17.275984      16.94457       2343.3524      0.98092092    -0.28285469     0.85347811     5.9628273    
     31300   17.270344      16.647475      2343.3524      0.9885598     -0.5316053      0.85347811     5.9661669    
     31400   17.265973      16.388754      2343.3524      0.98450909    -0.74868686     0.85347811     6.0109379    
     31500   17.262122      16.649975      2343.3524      0.99985188    -0.52245322     0.85347811     6.0429042    
     31600   17.25893       16.722847      2343.3524      0.97827647    -0.45753571     0.85347811     6.0438509    
     31700   17.256815      16.449468      2343.3524      0.98855531    -0.68905287     0.85347811     6.0566189    
     31800   17.255303      16.736799      2343.3524      0.97626152    -0.44253211     0.85347811     6.0688888    
     31900   17.253432      16.557678      2343.3524      0.99010812    -0.59381112     0.85347811     6.1000139    
     32000   17.252745      16.546231      2343.3524      0.97049871    -0.60299397     0.85347811     6.1275364    
     32100   17.251986      16.368339      2343.3524      0.96504828    -0.75417373     0.85347811     6.1584514    
     32200   17.252374      16.38784       2343.3524      0.95737863    -0.73786066     0.85347811     6.2193417    
     32300   17.254472      16.628988      2343.3524      0.99312542    -0.53383718     0.85347811     6.2549334    
     32400   17.256665      16.334368      2343.3524      0.96544288    -0.78716066     0.85347811     6.2718947    
     32500   17.259095      16.515919      2343.3524      0.97967231    -0.63428484     0.85347811     6.2886369    
     32600   17.263357      16.395413      2343.3524      0.98097237    -0.74077071     0.85347811     6.2772867    
     32700   17.268265      16.769116      2343.3524      0.94926264    -0.42601256     0.85347811     6.2534691    
     32800   17.275043      16.832002      2343.3524      0.98278487    -0.37812634     0.85347811     6.2343118    
     32900   17.283724      16.388959      2343.3524      0.98383991    -0.76366184     0.85347811     6.2497455    
     33000   17.293464      16.476992      2343.3524      0.98412974    -0.69684103     0.85347811     6.2788767    
     33100   17.30301       16.51982       2343.3524      0.98459929    -0.66843502     0.85347811     6.2778731    
     33200   17.312067      16.95838       2343.3524      0.99743956    -0.30186405     0.85347811     6.2831266    
     33300   17.319366      16.986221      2343.3524      1.011096      -0.28433225     0.85347811     6.285736     
     33400   17.327474      16.553481      2343.3524      0.99197671    -0.66058624     0.85347811     6.3067934    
     33500   17.333512      17.013553      2343.3524      1.0139113     -0.27307815     0.85347811     6.3426516    
     33600   17.338047      16.849368      2343.3524      1.0192557     -0.41707662     0.85347811     6.3526577    
     33700   17.341315      17.111369      2343.3524      1.0139804     -0.19625388     0.85347811     6.3458934    
     33800   17.343646      16.71259       2343.3524      1.0008096     -0.53859256     0.85347811     6.3472743    
     33900   17.345157      16.643374      2343.3524      1.0161208     -0.59895621     0.85347811     6.3545901    
     34000   17.345494      17.078251      2343.3524      1.0049989     -0.22808599     0.85347811     6.386464     
     34100   17.345904      16.805975      2343.3524      1.0209571     -0.46081694     0.85347811     6.4050197    
     34200   17.346822      16.646405      2343.3524      1.0145665     -0.59779072     0.85347811     6.3994458    
     34300   17.34668       16.60546       2343.3524      0.99544678    -0.6326155      0.85347811     6.4174301    
     34400   17.3466        16.839228      2343.3524      1.0254384     -0.43303102     0.85347811     6.4618288    
     34500   17.345518      16.367954      2343.3524      1.026571      -0.83432935     0.85347811     6.51096      
     34600   17.343981      16.76319       2343.3524      0.99656395    -0.49569188     0.85347811     6.5146614    
     34700   17.342825      16.756975      2343.3524      1.0265256     -0.50001031     0.85347811     6.5091105    
     34800   17.341438      17.070504      2343.3524      1.0026535     -0.23123598     0.85347811     6.5429938    
     34900   17.338715      16.278404      2343.3524      1.017194      -0.9049519      0.85347811     6.5774416    
     35000   17.335189      16.826458      2343.3524      1.009558      -0.43419001     0.85347811     6.5972402    
     35100   17.332143      16.763542      2343.3524      1.0052799     -0.48528884     0.85347811     6.6085394    
     35200   17.330204      16.39118       2343.3524      0.98997058    -0.80143647     0.85347811     6.6022323    
     35300   17.327884      16.748873      2343.3524      1.0201335     -0.49417283     0.85347811     6.5848526    
     35400   17.324196      16.706333      2343.3524      0.98761686    -0.52733308     0.85347811     6.570582     
     35500   17.320861      16.575551      2343.3524      1.0081007     -0.636106       0.85347811     6.5753047    
     35600   17.317557      16.738768      2343.3524      1.0342015     -0.49398438     0.85347811     6.5954711    
     35700   17.313763      16.404559      2343.3524      0.99938836    -0.77598549     0.85347811     6.6249102    
     35800   17.309707      16.848959      2343.3524      1.0136518     -0.39323816     0.85347811     6.6256328    
     35900   17.305628      16.63022       2343.3524      0.97440424    -0.57644641     0.85347811     6.6277474    
     36000   17.303252      16.872184      2343.3524      0.98943163    -0.36790727     0.85347811     6.6285939    
     36100   17.300822      16.956639      2343.3524      0.99399215    -0.29375297     0.85347811     6.6357583    
     36200   17.298305      15.888059      2343.3524      0.99339115    -1.2036147      0.85347811     6.6488742    
     36300   17.2949        16.793913      2343.3524      0.98531858    -0.42758142     0.85347811     6.6588653    
     36400   17.292778      16.842792      2343.3524      0.9985795     -0.38405307     0.85347811     6.6655996    
     36500   17.288393      16.775531      2343.3524      0.9918611     -0.43771602     0.85347811     6.6819009    
     36600   17.286813      16.855482      2343.3524      0.98940334    -0.36813158     0.85347811     6.700015     
     36700   17.285307      16.613709      2343.3524      0.97794121    -0.57319461     0.85347811     6.7174334    
     36800   17.28349       16.758565      2343.3524      0.99607251    -0.44801242     0.85347811     6.7210772    
     36900   17.282029      16.699614      2343.3524      0.97383227    -0.49707911     0.85347811     6.7203671    
     37000   17.280476      16.794595      2343.3524      0.99523332    -0.41468857     0.85347811     6.7114404    
     37100   17.278673      16.775899      2343.3524      0.97402037    -0.42910696     0.85347811     6.6882284    
     37200   17.277521      16.548618      2343.3524      0.98448882    -0.62210228     0.85347811     6.6761509    
     37300   17.277587      16.578638      2343.3524      0.99438803    -0.59653772     0.85347811     6.6658431    
     37400   17.277782      16.915388      2343.3524      0.97537814    -0.30929538     0.85347811     6.6652968    
     37500   17.277504      16.685519      2343.3524      0.99742998    -0.50524645     0.85347811     6.6739636    
     37600   17.278439      16.746288      2343.3524      1.0028697     -0.45417938     0.85347811     6.6874551    
     37700   17.278451      16.788557      2343.3524      0.98604459    -0.4181135      0.85347811     6.6817539    
     37800   17.280162      16.502046      2343.3524      0.98915227    -0.66410545     0.85347811     6.6964643    
     37900   17.2821        16.532971      2343.3524      0.99884042    -0.63936563     0.85347811     6.7487806    
     38000   17.284986      16.721767      2343.3524      1.0109488     -0.4806951      0.85347811     6.793502     
     38100   17.287519      16.520539      2343.3524      1.0065887     -0.65460105     0.85347811     6.8411675    
     38200   17.290558      16.649187      2343.3524      0.98030938    -0.54739551     0.85347811     6.8864139    
     38300   17.293687      16.75601       2343.3524      0.99115573    -0.45889506     0.85347811     6.9387719    
     38400   17.297917      16.688091      2343.3524      1.008352      -0.52047332     0.85347811     6.9806145    
     38500   17.304978      16.736593      2343.3524      0.99922617    -0.48510395     0.85347811     7.02343      
     38600   17.31167       16.664662      2343.3524      0.99908193    -0.55220693     0.85347811     7.0627532    
     38700   17.318631      16.538618      2343.3524      1.0327661     -0.6657244      0.85347811     7.0677464    
     38800   17.325388      16.932822      2343.3524      0.99891787    -0.33504665     0.85347811     7.051975     
     38900   17.331051      16.477778      2343.3524      0.9975774     -0.72824959     0.85347811     7.0240947    
     39000   17.337327      16.785534      2343.3524      1.0175736     -0.47094297     0.85347811     7.0007392    
     39100   17.343607      16.808539      2343.3524      1.011865      -0.45666853     0.85347811     6.9891189    
     39200   17.348118      16.744825      2343.3524      1.0093129     -0.51489777     0.85347811     6.9916004    
     39300   17.352578      16.80867       2343.3524      1.020691      -0.46421333     0.85347811     7.0212501    
     39400   17.35724       16.798839      2343.3524      1.0014179     -0.47658281     0.85347811     7.064901     
     39500   17.361243      17.304277      2343.3524      1.0178475     -0.048619616    0.85347811     7.0815229    
     39600   17.364293      17.084559      2343.3524      1.006107      -0.23874683     0.85347811     7.0912512    
     39700   17.367213      16.713265      2343.3524      1.0272333     -0.55813049     0.85347811     7.1083359    
     39800   17.368805      16.972432      2343.3524      1.0206764     -0.33829542     0.85347811     7.1265604    
     39900   17.370323      17.100609      2343.3524      1.0116822     -0.23019471     0.85347811     7.1044275    
     40000   17.369979      16.743141      2343.3524      1.0109555     -0.53499268     0.85347811     7.065037     
     40100   17.37088       17.064643      2343.3524      1.008173      -0.26136595     0.85347811     7.0237102    
     40200   17.371593      16.595017      2343.3524      1.0322295     -0.66279054     0.85347811     6.9958495    
     40300   17.370293      17.159121      2343.3524      1.0099529     -0.18023061     0.85347811     6.9977301    
     40400   17.3684        16.583014      2343.3524      1.0109893     -0.67030981     0.85347811     7.0289       
     40500   17.365611      16.684603      2343.3524      1.0198327     -0.5812256      0.85347811     7.0589038    
     40600   17.364022      16.387466      2343.3524      1.0380256     -0.8334686      0.85347811     7.0955657    
     40700   17.360606      16.770599      2343.3524      1.0132989     -0.50355773     0.85347811     7.121785     
     40800   17.356267      16.949205      2343.3524      1.0099635     -0.34741845     0.85347811     7.1257324    
     40900   17.352083      16.790522      2343.3524      1.0310279     -0.47927996     0.85347811     7.1351083    
     41000   17.345879      16.745864      2343.3524      1.0116241     -0.51209953     0.85347811     7.1458459    
     41100   17.339268      16.558884      2343.3524      1.016021      -0.66604087     0.85347811     7.149613     
     41200   17.331074      16.715501      2343.3524      1.000394      -0.52537802     0.85347811     7.1293321    
     41300   17.324035      16.788587      2343.3524      1.0181348     -0.45699304     0.85347811     7.0989346    
     41400   17.316276      16.496432      2343.3524      0.99228937    -0.69971877     0.85347811     7.0993042    
     41500   17.308519      16.450376      2343.3524      1.002458      -0.73240672     0.85347811     7.09376      
     41600   17.300807      16.962442      2343.3524      0.9836552     -0.28878682     0.85347811     7.0747541    
     41700   17.294482      16.892676      2343.3524      0.97096398    -0.34293234     0.85347811     7.059546     
     41800   17.289198      16.156765      2343.3524      0.99511958    -0.96650686     0.85347811     7.0525608    
     41900   17.285564      17.162273      2343.3524      0.97139037    -0.10522568     0.85347811     7.0408122    
     42000   17.282393      16.501033      2343.3524      0.97666543    -0.6668735      0.85347811     7.0308365    
     42100   17.279829      16.489304      2343.3524      0.99552474    -0.67469539     0.85347811     7.0156201    
     42200   17.277653      16.172734      2343.3524      0.99370027    -0.94302383     0.85347811     7.0085515    
     42300   17.277481      16.785714      2343.3524      0.9947855     -0.41971266     0.85347811     7.0378636    
     42400   17.276996      16.583338      2343.3524      1.0057431     -0.59202166     0.85347811     7.050589     
     42500   17.276757      16.346597      2343.3524      0.98951855    -0.79387127     0.85347811     7.0747541    
     42600   17.277143      16.450339      2343.3524      0.99031926    -0.70565874     0.85347811     7.0877009    
     42700   17.277622      16.928217      2343.3524      0.97970616    -0.29820999     0.85347811     7.0778155    
     42800   17.278512      16.74607       2343.3524      0.98807625    -0.4544278      0.85347811     7.0485307    
     42900   17.280103      16.582429      2343.3524      0.97946946    -0.59544971     0.85347811     7.01792      
     43000   17.282393      16.743932      2343.3524      0.9749963     -0.45956462     0.85347811     6.9935842    
     43100   17.283557      16.9727        2343.3524      0.9761564     -0.26530947     0.85347811     6.9844522    
     43200   17.286296      16.327962      2343.3524      0.99771473    -0.81791657     0.85347811     7.0030214    
     43300   17.288776      16.512573      2343.3524      0.99387056    -0.66247186     0.85347811     7.0157221    
     43400   17.291067      16.598105      2343.3524      0.97767304    -0.59142751     0.85347811     7.0195224    
     43500   17.293455      16.874648      2343.3524      0.9649998     -0.35744244     0.85347811     7.0455867    
     43600   17.296419      16.911655      2343.3524      0.98307062    -0.32838706     0.85347811     7.03201      
     43700   17.299597      16.255966      2343.3524      0.97904858    -0.89071664     0.85347811     7.0155647    
     43800   17.303684      17.023537      2343.3524      1.013481      -0.23909896     0.85347811     7.0024039    
     43900   17.306886      16.877939      2343.3524      0.98337801    -0.366097       0.85347811     6.9930076    
     44000   17.311831      16.728728      2343.3524      0.99937905    -0.49766522     0.85347811     6.9718128    
     44100   17.315908      16.343688      2343.3524      1.0153656     -0.8297686      0.85347811     6.9657579    
     44200   17.320875      17.09785       2343.3524      1.0029929     -0.19034695     0.85347811     6.9579089    
     44300   17.324731      16.947091      2343.3524      0.99656686    -0.32230753     0.85347811     6.936568     
     44400   17.327806      16.869145      2343.3524      1.0003732     -0.39145688     0.85347811     6.912768     
     44500   17.329618      16.97338       2343.3524      1.0077642     -0.30404109     0.85347811     6.8928288    
     44600   17.332302      16.324938      2343.3524      1.0239962     -0.85976297     0.85347811     6.8746452    
     44700   17.335648      16.828174      2343.3524      1.010058      -0.43311793     0.85347811     6.8361848    
     44800   17.336771      16.642423      2343.3524      0.99773684    -0.59261012     0.85347811     6.8030998    
     44900   17.339258      16.894768      2343.3524      1.0043455     -0.37936243     0.85347811     6.7800505    
     45000   17.340874      16.842272      2343.3524      1.0025683     -0.42554546     0.85347811     6.7452402    
     45100   17.34338       16.852961      2343.3524      1.0232572     -0.41856166     0.85347811     6.719573     
     45200   17.342834      16.873756      2343.3524      1.0114932     -0.40034732     0.85347811     6.7141242    
     45300   17.343947      16.893372      2343.3524      1.0002058     -0.38455589     0.85347811     6.7050811    
     45400   17.343273      16.559917      2343.3524      1.0130111     -0.66857715     0.85347811     6.6758411    
     45500   17.344115      17.097441      2343.3524      1.0039287     -0.21053088     0.85347811     6.6602919    
     45600   17.342692      16.790843      2343.3524      1.008426      -0.47099062     0.85347811     6.6699535    
     45700   17.34136       16.575063      2343.3524      1.0077223     -0.65401739     0.85347811     6.6560393    
     45800   17.338936      16.602793      2343.3524      1.0087574     -0.62828175     0.85347811     6.6415836    
     45900   17.336678      17.02269       2343.3524      1.0065663     -0.26798223     0.85347811     6.6373205    
     46000   17.334109      16.613706      2343.3524      1.0087832     -0.61484827     0.85347811     6.6276063    
     46100   17.33202       16.817058      2343.3524      1.0118368     -0.43950862     0.85347811     6.6224979    
     46200   17.327496      16.701698      2343.3524      1.0008782     -0.5341045      0.85347811     6.6348674    
     46300   17.322444      16.82879       2343.3524      1.0034861     -0.42132292     0.85347811     6.6802986    
     46400   17.31711       16.710592      2343.3524      1.0060839     -0.51765004     0.85347811     6.708617     
     46500   17.310116      16.424554      2343.3524      0.98358157    -0.75580797     0.85347811     6.7145327    
     46600   17.301738      16.520545      2343.3524      0.98260775    -0.66673087     0.85347811     6.7030292    
     46700   17.292925      16.658739      2343.3524      0.97928969    -0.54126338     0.85347811     6.659942     
     46800   17.282601      16.56411       2343.3524      0.99031119    -0.61321643     0.85347811     6.5786592    
     46900   17.272558      16.528462      2343.3524      0.97387382    -0.63506916     0.85347811     6.5066638    
     47000   17.262781      16.451837      2343.3524      0.9585962     -0.69212342     0.85347811     6.4602815    
     47100   17.253881      16.597274      2343.3524      0.95268035    -0.56040025     0.85347811     6.4006188    
     47200   17.246584      17.053824      2343.3524      0.96805587    -0.16451649     0.85347811     6.3532445    
     47300   17.241459      16.670853      2343.3524      0.97498814    -0.48699962     0.85347811     6.3189199    
     47400   17.237627      16.233018      2343.3524      0.95858032    -0.85741123     0.85347811     6.2886924    
     47500   17.235132      16.761539      2343.3524      0.97911171    -0.40420119     0.85347811     6.271696     
     47600   17.23458       16.76378       2343.3524      0.95763262    -0.40181741     0.85347811     6.2761108    
     47700   17.234483      16.356374      2343.3524      0.97315561    -0.74944745     0.85347811     6.2947989    
     47800   17.234871      16.453253      2343.3524      0.96789271    -0.66709437     0.85347811     6.2963316    
     47900   17.236204      16.684348      2343.3524      0.96770405    -0.47099708     0.85347811     6.2878086    
     48000   17.237739      16.670893      2343.3524      0.9576033     -0.48379119     0.85347811     6.2622787    
     48100   17.241181      16.686079      2343.3524      0.96289636    -0.47376769     0.85347811     6.2451504    
     48200   17.244841      16.331202      2343.3524      0.97097624    -0.77977037     0.85347811     6.238156     
     48300   17.249186      17.209838      2343.3524      0.9610261     -0.033582744    0.85347811     6.2567191    
     48400   17.253074      16.316339      2343.3524      0.98046466    -0.79948286     0.85347811     6.2814894    
     48500   17.257605      16.56046       2343.3524      0.97851581    -0.59499771     0.85347811     6.309963     
     48600   17.262118      16.260319      2343.3524      0.96852197    -0.85501339     0.85347811     6.3257238    
     48700   17.267132      16.650717      2343.3524      1.0007661     -0.5260971      0.85347811     6.3470625    
     48800   17.271353      16.582612      2343.3524      0.98738568    -0.58782579     0.85347811     6.3686554    
     48900   17.276246      16.546166      2343.3524      0.98380864    -0.62310719     0.85347811     6.3853354    
     49000   17.279964      16.496154      2343.3524      0.97001186    -0.66896453     0.85347811     6.3815248    
     49100   17.28524       16.410319      2343.3524      0.99631205    -0.7467266      0.85347811     6.3729978    
     49200   17.288523      16.740411      2343.3524      1.0012564     -0.46780235     0.85347811     6.3726745    
     49300   17.291002      16.816405      2343.3524      0.98752867    -0.40505853     0.85347811     6.3634361    
     49400   17.294427      16.669955      2343.3524      0.99819212    -0.53297336     0.85347811     6.3631517    
     49500   17.299364      17.127731      2343.3524      0.99075292    -0.14648507     0.85347811     6.3807735    
     49600   17.30262       16.554898      2343.3524      0.99303107    -0.63816445     0.85347811     6.3940031    
     49700   17.304605      16.948336      2343.3524      1.0051939     -0.30406844     0.85347811     6.422235     
     49800   17.308084      16.621463      2343.3524      0.99393262    -0.58601591     0.85347811     6.4196431    
     49900   17.310942      16.843839      2343.3524      0.99374618    -0.39866292     0.85347811     6.384152     
     50000   17.313269      16.964921      2343.3524      1.0013216     -0.29730738     0.85347811     6.3658098    
     50100   17.316476      16.565076      2343.3524      0.98972612    -0.64130338     0.85347811     6.3784855    
     50200   17.3201        16.80613       2343.3524      1.0023265     -0.43866234     0.85347811     6.3564685    
     50300   17.322354      16.617833      2343.3524      1.0004784     -0.60129362     0.85347811     6.3262586    
     50400   17.325066      17.281044      2343.3524      0.98793229    -0.037572042    0.85347811     6.3200008    
     50500   17.328368      16.813179      2343.3524      0.98518535    -0.43970196     0.85347811     6.3152271    
     50600   17.330015      16.807125      2343.3524      1.0133849     -0.44627544     0.85347811     6.3240323    
     50700   17.33275       16.814113      2343.3524      1.0181463     -0.4426454      0.85347811     6.3734599    
     50800   17.334489      16.732822      2343.3524      1.0094022     -0.51350926     0.85347811     6.4347599    
     50900   17.336329      16.723787      2343.3524      1.0130258     -0.52279062     0.85347811     6.4428339    
     51000   17.33842       16.720754      2343.3524      1.0067535     -0.52716408     0.85347811     6.4517926    
     51100   17.339091      17.017983      2343.3524      1.026743      -0.27405873     0.85347811     6.5215787    
     51200   17.340185      16.36107       2343.3524      1.0301694     -0.83565276     0.85347811     6.6060429    
     51300   17.340824      17.111193      2343.3524      1.0118937     -0.19598522     0.85347811     6.64142      
     51400   17.339477      16.857558      2343.3524      1.0058993     -0.41130762     0.85347811     6.6389392    
     51500   17.339696      17.188759      2343.3524      0.99925       -0.12882139     0.85347811     6.6310459    
     51600   17.338827      16.661701      2343.3524      1.0037435     -0.57791186     0.85347811     6.6156148    
     51700   17.337597      16.786807      2343.3524      1.0035314     -0.47008787     0.85347811     6.6257269    
     51800   17.335694      16.339316      2343.3524      1.010638      -0.85038696     0.85347811     6.6830753    
     51900   17.333121      16.907123      2343.3524      1.0028695     -0.36358045     0.85347811     6.7462508    
     52000   17.331461      16.840335      2343.3524      1.0244233     -0.41916516     0.85347811     6.800018     
     52100   17.328784      16.603938      2343.3524      1.0123256     -0.61863961     0.85347811     6.8383148    
     52200   17.324572      16.460627      2343.3524      1.0071609     -0.73735841     0.85347811     6.8483766    
     52300   17.319659      16.742703      2343.3524      0.99775997    -0.49241976     0.85347811     6.8403925    
     52400   17.314162      16.765746      2343.3524      0.99435897    -0.46806071     0.85347811     6.82774      
     52500   17.306537      16.36683       2343.3524      0.99019576    -0.80201915     0.85347811     6.84119      
     52600   17.298614      16.910762      2343.3524      1.0000972     -0.33102296     0.85347811     6.8575705    
     52700   17.290435      16.559356      2343.3524      0.97971816    -0.62396018     0.85347811     6.879008     
     52800   17.282541      16.222025      2343.3524      0.99819236    -0.90512703     0.85347811     6.9193733    
     52900   17.274507      16.870308      2343.3524      0.96706201    -0.34497581     0.85347811     6.926482     
     53000   17.267711      16.930908      2343.3524      0.94890965    -0.28745412     0.85347811     6.9317111    
     53100   17.261185      16.338073      2343.3524      0.96888029    -0.78785561     0.85347811     6.9693414    
     53200   17.257702      16.660258      2343.3524      0.9743542     -0.50990511     0.85347811     6.9995552    
     53300   17.254514      16.473002      2343.3524      0.96860243    -0.66700341     0.85347811     7.0205073    
     53400   17.251187      16.551776      2343.3524      0.98497884    -0.59693207     0.85347811     7.0067764    
     53500   17.248312      16.000663      2343.3524      0.96284064    -1.0648413      0.85347811     6.9626466    
     53600   17.246455      16.590429      2343.3524      0.98681766    -0.55990378     0.85347811     6.9459885    
     53700   17.245953      16.579088      2343.3524      0.97708161    -0.56915471     0.85347811     6.9433597    
     53800   17.24676       16.188892      2343.3524      0.98347249    -0.90286639     0.85347811     6.9378528    
     53900   17.247448      16.646864      2343.3524      0.96053146    -0.51258512     0.85347811     6.9317441    
     54000   17.249526      16.560942      2343.3524      0.97146604    -0.58769163     0.85347811     6.956683     
     54100   17.252123      16.641569      2343.3524      0.97704281    -0.52109444     0.85347811     6.9940134    
     54200   17.255402      16.499717      2343.3524      0.98135791    -0.64496037     0.85347811     6.9854951    
     54300   17.25955       16.735405      2343.3524      0.96711427    -0.4473464      0.85347811     6.9578585    
     54400   17.263497      16.455182      2343.3524      0.98177993    -0.68987902     0.85347811     6.9573606    
     54500   17.268361      16.581624      2343.3524      0.95712619    -0.5861152      0.85347811     6.9645625    
     54600   17.275247      16.760736      2343.3524      0.98358849    -0.43912418     0.85347811     7.0141226    
     54700   17.282029      17.009239      2343.3524      0.9950972     -0.23282025     0.85347811     7.039056     
     54800   17.28881       16.432725      2343.3524      1.0016764     -0.73064982     0.85347811     7.0527742    
     54900   17.29504       16.697345      2343.3524      0.98252719    -0.51011928     0.85347811     7.0984666    
     55000   17.300693      16.827841      2343.3524      0.98322524    -0.40356915     0.85347811     7.1453548    
     55100   17.30681       16.732872      2343.3524      1.0121777     -0.48984326     0.85347811     7.2048035    
     55200   17.311085      16.533645      2343.3524      1.0081383     -0.663528       0.85347811     7.2359521    
     55300   17.315922      16.61396       2343.3524      1.0058531     -0.59910866     0.85347811     7.3042797    
     55400   17.318491      17.032244      2343.3524      1.0166644     -0.24430542     0.85347811     7.3879565    
     55500   17.320343      16.326555      2343.3524      1.0212087     -0.84817679     0.85347811     7.4338711    
     55600   17.322149      16.977087      2343.3524      0.99427952    -0.29450273     0.85347811     7.455311     
     55700   17.323851      16.363501      2343.3524      1.012322      -0.81963751     0.85347811     7.4687757    
     55800   17.324159      17.014329      2343.3524      1.0130582     -0.2644329      0.85347811     7.4948632    
     55900   17.3243        16.555843      2343.3524      1.0115411     -0.65586133     0.85347811     7.5007806    
     56000   17.325042      16.979665      2343.3524      1.0074201     -0.29477196     0.85347811     7.4825661    
     56100   17.324298      16.815595      2343.3524      1.006317      -0.43416705     0.85347811     7.4904847    
     56200   17.324452      16.587329      2343.3524      0.99528595    -0.62911818     0.85347811     7.4992343    
     56300   17.325192      16.754419      2343.3524      1.0234355     -0.48714277     0.85347811     7.4983144    
     56400   17.324796      16.630936      2343.3524      0.97330601    -0.59219475     0.85347811     7.4916554    
     56500   17.325202      16.734026      2343.3524      1.0030169     -0.50455555     0.85347811     7.4548295    
     56600   17.325745      16.92319       2343.3524      0.98231506    -0.34357179     0.85347811     7.4152739    
     56700   17.326379      16.681839      2343.3524      0.99085669    -0.55010099     0.85347811     7.3957123    
     56800   17.327131      16.461461      2343.3524      1.0112223     -0.73883068     0.85347811     7.3952154    
     56900   17.327167      16.338168      2343.3524      1.0067909     -0.844089       0.85347811     7.3868105    
     57000   17.327372      16.365879      2343.3524      1.0170356     -0.8206132      0.85347811     7.3746613    
     57100   17.328679      16.82693       2343.3524      0.98936877    -0.42823219     0.85347811     7.3742157    
     57200   17.329948      16.684363      2343.3524      0.99185833    -0.55099273     0.85347811     7.3744297    
     57300   17.330062      17.112545      2343.3524      0.99242477    -0.1856457      0.85347811     7.3853592    
     57400   17.33083       16.468931      2343.3524      1.0070039     -0.73561251     0.85347811     7.37012      
     57500   17.331611      16.854129      2343.3524      1.0119625     -0.40752084     0.85347811     7.3754297    
     57600   17.331342      16.520377      2343.3524      1.0106987     -0.69214071     0.85347811     7.3929739    
     57700   17.331065      16.794516      2343.3524      0.98923982    -0.45793302     0.85347811     7.4183913    
     57800   17.32981       16.684078      2343.3524      1.0051864     -0.55111832     0.85347811     7.4487374    
     57900   17.328774      17.11105       2343.3524      0.98660324    -0.18582315     0.85347811     7.4564041    
     58000   17.328519      16.895869      2343.3524      1.0180938     -0.36925752     0.85347811     7.443421     
     58100   17.328494      16.317046      2343.3524      1.0090472     -0.86324926     0.85347811     7.4389793    
     58200   17.326971      17.136405      2343.3524      0.9841817     -0.16264452     0.85347811     7.4272887    
     58300   17.326061      17.040433      2343.3524      1.0111862     -0.24377743     0.85347811     7.4067153    
     58400   17.326479      16.636274      2343.3524      0.97858789    -0.58907468     0.85347811     7.3533881    
     58500   17.325372      17.170806      2343.3524      0.98653749    -0.13191813     0.85347811     7.3042689    
     58600   17.324703      16.859357      2343.3524      0.99296405    -0.3971629      0.85347811     7.272993     
     58700   17.321964      16.802371      2343.3524      1.0063182     -0.44346168     0.85347811     7.240916     
     58800   17.320427      16.775121      2343.3524      0.99338122    -0.46540686     0.85347811     7.1991578    
     58900   17.318071      16.812518      2343.3524      0.98383763    -0.43147865     0.85347811     7.1560603    
     59000   17.315849      16.403894      2343.3524      1.0176491     -0.77833353     0.85347811     7.1129833    
     59100   17.312967      16.753891      2343.3524      1.0316042     -0.47715847     0.85347811     7.0764265    
     59200   17.310432      16.170862      2343.3524      1.0183116     -0.97259746     0.85347811     7.0590419    
     59300   17.305679      16.394953      2343.3524      0.98852645    -0.77728453     0.85347811     7.0897672    
     59400   17.300021      17.024495      2343.3524      0.98846163    -0.2351556      0.85347811     7.1080129    
     59500   17.295724      16.568468      2343.3524      0.98115255    -0.62069706     0.85347811     7.1110625    
     59600   17.290387      16.750033      2343.3524      0.98022799    -0.46118033     0.85347811     7.1112275    
     59700   17.286103      16.97466       2343.3524      0.98827191    -0.26580945     0.85347811     7.1178717    
     59800   17.282751      16.831215      2343.3524      0.98413635    -0.38537586     0.85347811     7.141466     
     59900   17.279573      16.867897      2343.3524      0.97188802    -0.35135671     0.85347811     7.2125967    
     60000   17.276838      16.158205      2343.3524      0.97118737    -0.95472834     0.85347811     7.2458357    
     60100   17.274411      16.61352       2343.3524      0.97953172    -0.56405582     0.85347811     7.2453795    
     60200   17.272481      16.468409      2343.3524      0.98755705    -0.68625784     0.85347811     7.2433448    
     60300   17.27169       16.715565      2343.3524      0.9819193     -0.47464046     0.85347811     7.2629331    
     60400   17.271498      16.195578      2343.3524      0.96810987    -0.91827397     0.85347811     7.277304     
     60500   17.2713        16.918989      2343.3524      0.96560219    -0.30068982     0.85347811     7.3082517    
     60600   17.272216      16.747437      2343.3524      0.96924307    -0.44788731     0.85347811     7.3211811    
     60700   17.27381       16.150497      2343.3524      0.99247591    -0.95872303     0.85347811     7.3083844    
     60800   17.276169      16.331378      2343.3524      0.98686878    -0.80635833     0.85347811     7.300663     
     60900   17.278326      16.762108      2343.3524      0.99906941    -0.44058067     0.85347811     7.3292771    
     61000   17.282065      16.249487      2343.3524      0.99463081    -0.88128235     0.85347811     7.3624796    
     61100   17.286077      16.378191      2343.3524      0.97814187    -0.77486116     0.85347811     7.3829855    
     61200   17.290949      16.815297      2343.3524      0.99562273    -0.40595916     0.85347811     7.365392     
     61300   17.29675       16.43968       2343.3524      0.97600501    -0.73149004     0.85347811     7.3281628    
     61400   17.302098      16.676602      2343.3524      1.0068273     -0.53384675     0.85347811     7.2929614    
     61500   17.308844      16.927385      2343.3524      0.97869387    -0.32556661     0.85347811     7.2944847    
     61600   17.316276      16.595664      2343.3524      0.98518509    -0.61502691     0.85347811     7.3289553    
     61700   17.324722      16.888555      2343.3524      0.99203157    -0.37225884     0.85347811     7.3776565    
     61800   17.331544      16.493451      2343.3524      1.0221074     -0.71529419     0.85347811     7.4289474    
     61900   17.33835       16.302733      2343.3524      0.99511814    -0.88387589     0.85347811     7.4294964    
     62000   17.344105      17.437456      2343.3524      0.99615411     0.079672824    0.85347811     7.4184605    
     62100   17.348403      16.44293       2343.3524      1.0114988     -0.77280163     0.85347811     7.4449546    
     62200   17.353634      16.766344      2343.3524      1.0306397     -0.50123953     0.85347811     7.4898603    
     62300   17.356934      16.599066      2343.3524      1.010343      -0.64682395     0.85347811     7.5198761    
     62400   17.360223      17.058051      2343.3524      0.99406604    -0.25789724     0.85347811     7.5264809    
     62500   17.361941      17.077989      2343.3524      1.0376483     -0.24234681     0.85347811     7.542882     
     62600   17.364359      16.897426      2343.3524      1.0079755     -0.39851739     0.85347811     7.5727817    
     62700   17.365344      16.781503      2343.3524      1.0031638     -0.49829556     0.85347811     7.5954262    
     62800   17.36645       17.048609      2343.3524      1.0059494     -0.27127062     0.85347811     7.6042538    
     62900   17.367066      17.075647      2343.3524      1.02007       -0.24871945     0.85347811     7.6002344    
     63000   17.366956      16.672696      2343.3524      1.0243147     -0.59253584     0.85347811     7.5888133    
     63100   17.367747      16.863366      2343.3524      1.0132991     -0.43047799     0.85347811     7.5619146    
     63200   17.367086      17.230382      2343.3524      0.99240613    -0.11667328     0.85347811     7.5460008    
     63300   17.366143      16.682618      2343.3524      1.024485      -0.58337403     0.85347811     7.5632622    
     63400   17.364691      16.577237      2343.3524      1.0123877     -0.67207435     0.85347811     7.6062947    
     63500   17.363206      16.646909      2343.3524      1.0201171     -0.61134395     0.85347811     7.6485652    
     63600   17.360342      17.271153      2343.3524      1.0224725     -0.07612146     0.85347811     7.6739504    
     63700   17.358555      16.671444      2343.3524      1.0152876     -0.58643416     0.85347811     7.7098281    
     63800   17.3564        16.58848       2343.3524      0.98453059    -0.65540295     0.85347811     7.7437208    
     63900   17.353349      17.127989      2343.3524      0.99604586    -0.19234002     0.85347811     7.7418028    
     64000   17.350887      16.705838      2343.3524      1.0133621     -0.55053546     0.85347811     7.7424786    
     64100   17.348514      16.469552      2343.3524      1.0114772     -0.75017543     0.85347811     7.7523185    
     64200   17.345183      16.766336      2343.3524      1.0041286     -0.49403332     0.85347811     7.7584503    
     64300   17.341777      17.193715      2343.3524      1.0070018     -0.12636827     0.85347811     7.7548786    
     64400   17.339015      16.890026      2343.3524      1.0029995     -0.38320229     0.85347811     7.769116     
     64500   17.334904      16.697608      2343.3524      1.0065068     -0.54391851     0.85347811     7.7949131    
     64600   17.332033      16.568817      2343.3524      0.97789603    -0.65138786     0.85347811     7.810095     
     64700   17.32827       16.719932      2343.3524      1.0193007     -0.51920291     0.85347811     7.8402911    
     64800   17.324651      16.754935      2343.3524      0.99284877    -0.48624054     0.85347811     7.8584836    
     64900   17.321639      16.723985      2343.3524      0.99692752    -0.51008512     0.85347811     7.8616852    
     65000   17.317296      16.567892      2343.3524      1.0223206     -0.63959965     0.85347811     7.8646269    
     65100   17.314407      16.642355      2343.3524      0.99398987    -0.57358183     0.85347811     7.8586123    
     65200   17.311364      16.532641      2343.3524      0.99342821    -0.66462265     0.85347811     7.8318402    
     65300   17.308288      16.45942       2343.3524      1.0187281     -0.72449022     0.85347811     7.7953001    
     65400   17.306311      16.63515       2343.3524      1.0001685     -0.57282098     0.85347811     7.7912622    
     65500   17.304085      16.966022      2343.3524      1.0078658     -0.28852932     0.85347811     7.7989032    
     65600   17.302509      16.73923       2343.3524      0.99268388    -0.48074677     0.85347811     7.7924966    
     65700   17.299668      16.801914      2343.3524      0.97417336    -0.42482199     0.85347811     7.7760006    
     65800   17.298943      16.5177        2343.3524      0.99653146    -0.6667742      0.85347811     7.7868836    
     65900   17.297854      16.587718      2343.3524      0.99915972    -0.6060851      0.85347811     7.7873827    
     66000   17.296864      16.68079       2343.3524      0.98166354    -0.52580602     0.85347811     7.7730071    
     66100   17.297115      16.424553      2343.3524      1.0082204     -0.74471216     0.85347811     7.7708863    
     66200   17.296565      16.860566      2343.3524      0.99292525    -0.37211601     0.85347811     7.7725478    
[...]
    984200   17.293625      16.881983      2343.3524      0.96328149    -0.3513275      0.85347811     9.2181599    
    984300   17.295989      16.527753      2343.3524      1.0027255     -0.65567282     0.85347811     9.2120633    
    984400   17.299091      16.579027      2343.3524      0.99775025    -0.61455896     0.85347811     9.2317495    
    984500   17.302009      16.816377      2343.3524      0.98483743    -0.41447674     0.85347811     9.2484257    
    984600   17.304513      16.966452      2343.3524      0.99842525    -0.28852781     0.85347811     9.251723     
    984700   17.306585      16.355519      2343.3524      1.0026579     -0.81171409     0.85347811     9.2441906    
    984800   17.31039       16.18017       2343.3524      1.0019264     -0.96461821     0.85347811     9.2251534    
    984900   17.314747      16.907534      2343.3524      0.98132468    -0.34754709     0.85347811     9.2112595    
    985000   17.318509      16.644524      2343.3524      1.0095932     -0.57523171     0.85347811     9.2005297    
    985100   17.321168      16.395405      2343.3524      1.0069406     -0.79011874     0.85347811     9.1985837    
    985200   17.322802      16.76542       2343.3524      0.9965203     -0.47571399     0.85347811     9.2238108    
    985300   17.325476      16.691921      2343.3524      1.0014254     -0.54072537     0.85347811     9.2564718    
    985400   17.328756      16.631881      2343.3524      0.99781974    -0.59476721     0.85347811     9.2490558    
    985500   17.330576      16.707576      2343.3524      1.0055331     -0.53171661     0.85347811     9.2294198    
    985600   17.332825      16.598412      2343.3524      1.0018224     -0.62680557     0.85347811     9.2217928    
    985700   17.335365      16.425502      2343.3524      1.0047487     -0.77654766     0.85347811     9.2322109    
    985800   17.337422      16.764181      2343.3524      1.0014617     -0.4892491      0.85347811     9.2414876    
    985900   17.340947      16.340447      2343.3524      1.0056492     -0.8539046      0.85347811     9.2456343    
    986000   17.343375      16.815259      2343.3524      0.99270764    -0.45073615     0.85347811     9.2441977    
    986100   17.345075      16.693482      2343.3524      1.0192579     -0.55612011     0.85347811     9.2459871    
    986200   17.347663      16.907207      2343.3524      1.0079758     -0.37591945     0.85347811     9.251094     
    986300   17.347834      16.350983      2343.3524      1.0377208     -0.85078991     0.85347811     9.251203     
    986400   17.348821      16.91603       2343.3524      1.0125826     -0.36937792     0.85347811     9.2517686    
    986500   17.350762      17.069501      2343.3524      1.0056683     -0.24004994     0.85347811     9.2623101    
    986600   17.351209      16.890943      2343.3524      0.99909763    -0.39282708     0.85347811     9.301221     
    986700   17.351208      16.756136      2343.3524      1.0098083     -0.50788073     0.85347811     9.338343     
    986800   17.350646      17.075053      2343.3524      0.99426917    -0.23521266     0.85347811     9.3616262    
    986900   17.349914      16.636384      2343.3524      1.0150608     -0.60898269     0.85347811     9.3825612    
    987000   17.349467      17.21727       2343.3524      0.99885062    -0.112827       0.85347811     9.3847026    
    987100   17.348728      16.938387      2343.3524      0.99920551    -0.35021704     0.85347811     9.3813242    
    987200   17.346561      16.689473      2343.3524      1.0130906     -0.56081081     0.85347811     9.3454171    
    987300   17.34344       16.659695      2343.3524      1.0146025     -0.58356186     0.85347811     9.3112721    
    987400   17.339824      17.063978      2343.3524      1.0144385     -0.23542867     0.85347811     9.2741343    
    987500   17.336167      16.519166      2343.3524      1.0098126     -0.69729268     0.85347811     9.2548894    
    987600   17.330602      16.720818      2343.3524      1.0053021     -0.52043689     0.85347811     9.2473609    
    987700   17.324732      16.349105      2343.3524      1.0010626     -0.83267614     0.85347811     9.229875     
    987800   17.31825       16.647945      2343.3524      1.010217      -0.57209052     0.85347811     9.2015659    
    987900   17.31225       16.527072      2343.3524      0.99382343    -0.67013157     0.85347811     9.203692     
    988000   17.305871      16.8886        2343.3524      0.97959212    -0.3561317      0.85347811     9.2085988    
    988100   17.299958      16.277236      2343.3524      1.0136816     -0.87287141     0.85347811     9.2166324    
    988200   17.294205      16.673321      2343.3524      0.9905232     -0.52991154     0.85347811     9.2296155    
    988300   17.288291      16.701639      2343.3524      0.97757801    -0.50069497     0.85347811     9.2278349    
    988400   17.284659      17.068715      2343.3524      0.99442763    -0.18430315     0.85347811     9.2214628    
    988500   17.280088      16.423477      2343.3524      0.98317947    -0.73109859     0.85347811     9.234834     
    988600   17.276809      16.914721      2343.3524      0.99362481    -0.30903395     0.85347811     9.2623613    
    988700   17.273616      16.466201      2343.3524      0.98257401    -0.68911136     0.85347811     9.2579615    
    988800   17.270412      16.298698      2343.3524      0.98562828    -0.82933642     0.85347811     9.2390423    
    988900   17.267999      16.446947      2343.3524      0.97954674    -0.7007502      0.85347811     9.2104465    
    989000   17.266969      16.512897      2343.3524      0.98199647    -0.64358465     0.85347811     9.1727003    
    989100   17.266207      16.835159      2343.3524      0.98853645    -0.36789025     0.85347811     9.1364186    
    989200   17.266612      16.026114      2343.3524      0.9963779     -1.058738       0.85347811     9.0811008    
    989300   17.266543      16.641023      2343.3524      0.9769387     -0.53386694     0.85347811     9.0474063    
    989400   17.267042      16.499467      2343.3524      0.97947094    -0.65510838     0.85347811     9.0514355    
    989500   17.268308      16.407282      2343.3524      0.98629039    -0.73486721     0.85347811     9.0803188    
    989600   17.269704      16.57214       2343.3524      0.9908943     -0.59535546     0.85347811     9.0742369    
    989700   17.273152      16.72401       2343.3524      0.96852069    -0.46868081     0.85347811     9.0794297    
    989800   17.276173      16.180591      2343.3524      1.001793      -0.93505482     0.85347811     9.096322     
    989900   17.27993       16.516026      2343.3524      1.0035233     -0.65197592     0.85347811     9.1067824    
    990000   17.283895      16.66652       2343.3524      1.0010996     -0.52691656     0.85347811     9.1272234    
    990100   17.2895        16.595877      2343.3524      0.99274714    -0.59199284     0.85347811     9.1796036    
    990200   17.295049      16.71287       2343.3524      0.97516445    -0.49687652     0.85347811     9.2135183    
    990300   17.30091       16.887117      2343.3524      0.98083532    -0.35316285     0.85347811     9.2179291    
    990400   17.306676      17.012991      2343.3524      0.99810545    -0.25065419     0.85347811     9.2425149    
    990500   17.314203      16.256177      2343.3524      0.99596341    -0.9030015      0.85347811     9.2598901    
    990600   17.32037       17.014994      2343.3524      1.0093394     -0.26063187     0.85347811     9.2550449    
    990700   17.327932      17.139053      2343.3524      1.0205753     -0.16120448     0.85347811     9.2551412    
    990800   17.334624      17.007339      2343.3524      1.008651      -0.27933003     0.85347811     9.2630427    
    990900   17.339955      16.607075      2343.3524      1.018285      -0.62549722     0.85347811     9.2427928    
    991000   17.344708      16.81327       2343.3524      1.0189689     -0.45357071     0.85347811     9.2036802    
    991100   17.348339      17.054392      2343.3524      1.0050557     -0.25087719     0.85347811     9.1815007    
    991200   17.351934      16.757439      2343.3524      1.0231916     -0.50738817     0.85347811     9.1878566    
    991300   17.354883      16.784211      2343.3524      1.0250707     -0.4870567      0.85347811     9.2023688    
    991400   17.355937      16.6256        2343.3524      1.0194885     -0.62332717     0.85347811     9.217046     
    991500   17.356605      16.736115      2343.3524      1.0229698     -0.52957408     0.85347811     9.2349726    
    991600   17.357247      17.153224      2343.3524      1.021674      -0.17412922     0.85347811     9.2645629    
    991700   17.358644      16.526213      2343.3524      1.003016      -0.71046123     0.85347811     9.2843832    
    991800   17.357933      17.117086      2343.3524      1.0145623     -0.20555789     0.85347811     9.2791579    
    991900   17.357976      16.681083      2343.3524      1.009395      -0.57771303     0.85347811     9.2671811    
    992000   17.356854      16.746874      2343.3524      1.0146892     -0.52060515     0.85347811     9.2860099    
    992100   17.356957      16.806837      2343.3524      1.0035229     -0.46951515     0.85347811     9.275061     
    992200   17.355069      16.844752      2343.3524      1.0367404     -0.43554472     0.85347811     9.2364228    
    992300   17.353568      17.068997      2343.3524      1.0091502     -0.24287433     0.85347811     9.223773     
    992400   17.350821      16.571419      2343.3524      1.0127633     -0.66520274     0.85347811     9.2476674    
    992500   17.349635      16.86643       2343.3524      1.0101774     -0.41240483     0.85347811     9.2778945    
    992600   17.346793      16.68913       2343.3524      1.008406      -0.5613012      0.85347811     9.3148222    
    992700   17.343074      16.692732      2343.3524      1.003474      -0.55505302     0.85347811     9.3403098    
    992800   17.340226      16.932977      2343.3524      1.0056817     -0.34757758     0.85347811     9.3645378    
    992900   17.338654      16.445706      2343.3524      0.99946474    -0.76211182     0.85347811     9.4001195    
    993000   17.336722      16.544479      2343.3524      1.0071778     -0.67616165     0.85347811     9.4445208    
    993100   17.334718      16.461041      2343.3524      0.99683462    -0.74566386     0.85347811     9.4780985    
    993200   17.331234      16.747296      2343.3524      1.0172656     -0.49837799     0.85347811     9.4845068    
    993300   17.329113      16.227343      2343.3524      1.0119251     -0.94033682     0.85347811     9.4605729    
    993400   17.327073      17.03885       2343.3524      0.97997498    -0.2459918      0.85347811     9.4583252    
    993500   17.325327      16.902365      2343.3524      1.0192777     -0.36098884     0.85347811     9.4536812    
    993600   17.323527      16.36789       2343.3524      1.0036921     -0.81561524     0.85347811     9.4151362    
    993700   17.321502      16.495974      2343.3524      1.0115927     -0.70456999     0.85347811     9.3933168    
    993800   17.32044       16.808663      2343.3524      0.9711873     -0.43679089     0.85347811     9.3816914    
    993900   17.319246      16.983309      2343.3524      1.0058621     -0.28671487     0.85347811     9.3601206    
    994000   17.31836       16.67066       2343.3524      1.0171896     -0.55279772     0.85347811     9.3552196    
    994100   17.317212      16.571791      2343.3524      0.99217147    -0.63620055     0.85347811     9.3585621    
    994200   17.317111      16.918052      2343.3524      1.0071315     -0.34058798     0.85347811     9.3629084    
    994300   17.315519      16.61141       2343.3524      1.0082521     -0.60094145     0.85347811     9.378433     
    994400   17.313695      16.742681      2343.3524      1.0092266     -0.48734805     0.85347811     9.372632     
    994500   17.312413      16.533123      2343.3524      1.0011396     -0.6651077      0.85347811     9.3602074    
    994600   17.311206      16.798491      2343.3524      0.99028279    -0.43759136     0.85347811     9.3477556    
    994700   17.310487      16.788266      2343.3524      0.99337496    -0.4457041      0.85347811     9.3413088    
    994800   17.309393      16.268067      2343.3524      0.98581467    -0.88874887     0.85347811     9.3256916    
    994900   17.30882       16.686628      2343.3524      0.99028384    -0.53102714     0.85347811     9.33941      
    995000   17.308862      16.550733      2343.3524      0.99750562    -0.64704625     0.85347811     9.3370566    
    995100   17.308521      16.517014      2343.3524      0.9897662     -0.67553425     0.85347811     9.2857799    
    995200   17.309292      16.576867      2343.3524      1.001061      -0.62510931     0.85347811     9.2116859    
    995300   17.311097      16.660497      2343.3524      0.98582795    -0.55527295     0.85347811     9.1483806    
    995400   17.310658      16.7006        2343.3524      0.98580631    -0.5206712      0.85347811     9.0979946    
    995500   17.311004      16.528363      2343.3524      0.98241531    -0.66796753     0.85347811     9.0736498    
    995600   17.312419      17.097903      2343.3524      0.99416514    -0.18308478     0.85347811     9.0458022    
    995700   17.314392      17.092912      2343.3524      0.97698952    -0.18902806     0.85347811     9.0189309    
    995800   17.316997      17.081708      2343.3524      0.99395263    -0.20081361     0.85347811     9.0094601    
    995900   17.319425      16.608814      2343.3524      0.9896387     -0.60649069     0.85347811     9.003227     
    996000   17.322261      16.55177       2343.3524      1.0136983     -0.65759782     0.85347811     8.9871861    
    996100   17.325566      16.891301      2343.3524      1.0122211     -0.37063629     0.85347811     8.9868555    
    996200   17.329649      16.762655      2343.3524      1.0176829     -0.48391688     0.85347811     8.9861618    
    996300   17.333849      17.117739      2343.3524      0.99388125    -0.18444564     0.85347811     8.9733735    
    996400   17.337386      16.780229      2343.3524      1.0171324     -0.47552099     0.85347811     8.9743174    
    996500   17.342329      17.449209      2343.3524      0.98413229     0.091219858    0.85347811     8.9919506    
    996600   17.348654      16.642149      2343.3524      0.9868915     -0.60298608     0.85347811     8.9749311    
    996700   17.355872      17.16616       2343.3524      1.0195556     -0.16191433     0.85347811     8.9449684    
    996800   17.364698      17.330884      2343.3524      1.0329475     -0.028859781    0.85347811     8.9214365    
    996900   17.375144      17.20159       2343.3524      1.0375043     -0.14812519     0.85347811     8.9220286    
    997000   17.385824      17.093673      2343.3524      1.0089959     -0.24934442     0.85347811     8.9075906    
    997100   17.397285      17.003481      2343.3524      1.0444432     -0.33610321     0.85347811     8.8672934    
    997200   17.407023      17.252235      2343.3524      1.0115001     -0.13210786     0.85347811     8.7975172    
    997300   17.416129      17.428583      2343.3524      1.0237254      0.010628531    0.85347811     8.7511886    
    997400   17.422947      16.707251      2343.3524      1.0323268     -0.6108313      0.85347811     8.71832      
    997500   17.428356      17.088921      2343.3524      1.0400778     -0.28970013     0.85347811     8.7006131    
    997600   17.430357      16.893364      2343.3524      1.0407066     -0.45831103     0.85347811     8.6993246    
    997700   17.432545      17.030446      2343.3524      1.0669741     -0.34318226     0.85347811     8.7002456    
    997800   17.431177      16.819384      2343.3524      1.0617661     -0.52215239     0.85347811     8.7049934    
    997900   17.429102      17.264419      2343.3524      0.9999383     -0.14055355     0.85347811     8.7284397    
    998000   17.426683      17.352155      2343.3524      1.0411808     -0.06360801     0.85347811     8.7483919    
    998100   17.423103      16.942648      2343.3524      1.0567572     -0.41005794     0.85347811     8.733621     
    998200   17.417751      16.966336      2343.3524      1.0546457     -0.38527281     0.85347811     8.7191051    
    998300   17.411056      17.139051      2343.3524      1.0504776     -0.2321502      0.85347811     8.7017092    
    998400   17.404239      17.084626      2343.3524      1.0255092     -0.27278281     0.85347811     8.6319882    
    998500   17.398519      17.251147      2343.3524      1.0295699     -0.12577813     0.85347811     8.5851988    
    998600   17.391279      16.615903      2343.3524      1.0296909     -0.66176701     0.85347811     8.5309773    
    998700   17.38497       17.278535      2343.3524      1.0270325     -0.090840396    0.85347811     8.4511998    
    998800   17.378007      16.903004      2343.3524      1.010915      -0.40540452     0.85347811     8.4192972    
    998900   17.371647      16.74468       2343.3524      1.0314041     -0.53510278     0.85347811     8.4061507    
    999000   17.365748      16.868653      2343.3524      1.0209331     -0.42425992     0.85347811     8.3833011    
    999100   17.361058      16.996141      2343.3524      1.0248402     -0.31144929     0.85347811     8.3707446    
    999200   17.356349      17.57232       2343.3524      0.99863563     0.18432609     0.85347811     8.3498676    
    999300   17.352507      16.245859      2343.3524      1.0124585     -0.94450002     0.85347811     8.3122318    
    999400   17.34776       16.761043      2343.3524      1.0325355     -0.50075022     0.85347811     8.2960285    
    999500   17.34415       16.969095      2343.3524      1.0022762     -0.32010145     0.85347811     8.3094878    
    999600   17.339832      16.758839      2343.3524      1.0154604     -0.49586492     0.85347811     8.3271552    
    999700   17.335767      16.465917      2343.3524      1.0053841     -0.74239823     0.85347811     8.3336719    
    999800   17.331579      17.019028      2343.3524      0.99485641    -0.26675488     0.85347811     8.3175708    
    999900   17.327439      16.925056      2343.3524      1.0062306     -0.34342474     0.85347811     8.3008777    
   1000000   17.324041      16.747258      2343.3524      1.0038136     -0.4922716      0.85347811     8.2802225    
Loop time of 599.009 on 1 procs for 1000000 steps with 2000 atoms

Performance: 144238.264 tau/day, 1669.424 timesteps/s, 3.339 Matom-step/s
99.7% CPU use with 1 MPI tasks x 1 OpenMP threads

MPI task timing breakdown:
Section |  min time  |  avg time  |  max time  |%varavg| %total
---------------------------------------------------------------
Pair    | 409.84     | 409.84     | 409.84     |   0.0 | 68.42
Bond    | 16.926     | 16.926     | 16.926     |   0.0 |  2.83
Neigh   | 99.687     | 99.687     | 99.687     |   0.0 | 16.64
Comm    | 11.417     | 11.417     | 11.417     |   0.0 |  1.91
Output  | 1.9362     | 1.9362     | 1.9362     |   0.0 |  0.32
Modify  | 53.922     | 53.922     | 53.922     |   0.0 |  9.00
Other   |            | 5.28       |            |       |  0.88

Nlocal:           2000 ave        2000 max        2000 min
Histogram: 1 0 0 0 0 0 0 0 0 0
Nghost:           3564 ave        3564 max        3564 min
Histogram: 1 0 0 0 0 0 0 0 0 0
Neighs:          67012 ave       67012 max       67012 min
Histogram: 1 0 0 0 0 0 0 0 0 0

Total # of neighbors = 67012
Ave neighs/atom = 33.506
Ave special neighs/atom = 1.98
Neighbor list builds = 41663
Dangerous builds = 0

write_data 		100mer_simulated.data
System init for write_data ...
Generated 0 of 0 mixed pair_coeff terms from geometric mixing rule
Total wall time: 0:09:59
